+ 1 /NodeList/0/DeviceList/0/$ns3::PointToPointNetDevice/TxQueue/Enqueue ns3::PppHeader (Point-to-Point Protocol: IP (0x0021)) ns3::Ipv4Header (tos 0x0 DSCP Default ECN Not-ECT ttl 64 id 0 protocol 6 offset (bytes) 0 flags [none] length: 56 10.1.1.1 > 10.1.2.2) ns3::TcpHeader (49153 > 8080 [SYN] Seq=0 Ack=0 Win=65535 ns3::TcpOptionTS(1000;0) ns3::TcpOptionWinScale(2) ns3::TcpOptionSackPermitted([sack_perm]) ns3::TcpOptionEnd(EOL))
- 1 /NodeList/0/DeviceList/0/$ns3::PointToPointNetDevice/TxQueue/Dequeue ns3::PppHeader (Point-to-Point Protocol: IP (0x0021)) ns3::Ipv4Header (tos 0x0 DSCP Default ECN Not-ECT ttl 64 id 0 protocol 6 offset (bytes) 0 flags [none] length: 56 10.1.1.1 > 10.1.2.2) ns3::TcpHeader (49153 > 8080 [SYN] Seq=0 Ack=0 Win=65535 ns3::TcpOptionTS(1000;0) ns3::TcpOptionWinScale(2) ns3::TcpOptionSackPermitted([sack_perm]) ns3::TcpOptionEnd(EOL))
r 1.00509 /NodeList/1/DeviceList/0/$ns3::PointToPointNetDevice/MacRx ns3::PppHeader (Point-to-Point Protocol: IP (0x0021)) ns3::Ipv4Header (tos 0x0 DSCP Default ECN Not-ECT ttl 64 id 0 protocol 6 offset (bytes) 0 flags [none] length: 56 10.1.1.1 > 10.1.2.2) ns3::TcpHeader (49153 > 8080 [SYN] Seq=0 Ack=0 Win=65535 ns3::TcpOptionTS(1000;0) ns3::TcpOptionWinScale(2) ns3::TcpOptionSackPermitted([sack_perm]) ns3::TcpOptionEnd(EOL))
+ 1.00509 /NodeList/1/DeviceList/1/$ns3::PointToPointNetDevice/TxQueue/Enqueue ns3::PppHeader (Point-to-Point Protocol: IP (0x0021)) ns3::Ipv4Header (tos 0x0 DSCP Default ECN Not-ECT ttl 63 id 0 protocol 6 offset (bytes) 0 flags [none] length: 56 10.1.1.1 > 10.1.2.2) ns3::TcpHeader (49153 > 8080 [SYN] Seq=0 Ack=0 Win=65535 ns3::TcpOptionTS(1000;0) ns3::TcpOptionWinScale(2) ns3::TcpOptionSackPermitted([sack_perm]) ns3::TcpOptionEnd(EOL))
- 1.00509 /NodeList/1/DeviceList/1/$ns3::PointToPointNetDevice/TxQueue/Dequeue ns3::PppHeader (Point-to-Point Protocol: IP (0x0021)) ns3::Ipv4Header (tos 0x0 DSCP Default ECN Not-ECT ttl 63 id 0 protocol 6 offset (bytes) 0 flags [none] length: 56 10.1.1.1 > 10.1.2.2) ns3::TcpHeader (49153 > 8080 [SYN] Seq=0 Ack=0 Win=65535 ns3::TcpOptionTS(1000;0) ns3::TcpOptionWinScale(2) ns3::TcpOptionSackPermitted([sack_perm]) ns3::TcpOptionEnd(EOL))
r 1.01019 /NodeList/2/DeviceList/0/$ns3::PointToPointNetDevice/MacRx ns3::PppHeader (Point-to-Point Protocol: IP (0x0021)) ns3::Ipv4Header (tos 0x0 DSCP Default ECN Not-ECT ttl 63 id 0 protocol 6 offset (bytes) 0 flags [none] length: 56 10.1.1.1 > 10.1.2.2) ns3::TcpHeader (49153 > 8080 [SYN] Seq=0 Ack=0 Win=65535 ns3::TcpOptionTS(1000;0) ns3::TcpOptionWinScale(2) ns3::TcpOptionSackPermitted([sack_perm]) ns3::TcpOptionEnd(EOL))
+ 1.01019 /NodeList/2/DeviceList/0/$ns3::PointToPointNetDevice/TxQueue/Enqueue ns3::PppHeader (Point-to-Point Protocol: IP (0x0021)) ns3::Ipv4Header (tos 0x0 DSCP Default ECN Not-ECT ttl 64 id 0 protocol 6 offset (bytes) 0 flags [none] length: 56 10.1.2.2 > 10.1.1.1) ns3::TcpHeader (8080 > 49153 [SYN|ACK] Seq=0 Ack=1 Win=65535 ns3::TcpOptionTS(1010;1000) ns3::TcpOptionWinScale(2) ns3::TcpOptionSackPermitted([sack_perm]) ns3::TcpOptionEnd(EOL))
- 1.01019 /NodeList/2/DeviceList/0/$ns3::PointToPointNetDevice/TxQueue/Dequeue ns3::PppHeader (Point-to-Point Protocol: IP (0x0021)) ns3::Ipv4Header (tos 0x0 DSCP Default ECN Not-ECT ttl 64 id 0 protocol 6 offset (bytes) 0 flags [none] length: 56 10.1.2.2 > 10.1.1.1) ns3::TcpHeader (8080 > 49153 [SYN|ACK] Seq=0 Ack=1 Win=65535 ns3::TcpOptionTS(1010;1000) ns3::TcpOptionWinScale(2) ns3::TcpOptionSackPermitted([sack_perm]) ns3::TcpOptionEnd(EOL))
r 1.01528 /NodeList/1/DeviceList/1/$ns3::PointToPointNetDevice/MacRx ns3::PppHeader (Point-to-Point Protocol: IP (0x0021)) ns3::Ipv4Header (tos 0x0 DSCP Default ECN Not-ECT ttl 64 id 0 protocol 6 offset (bytes) 0 flags [none] length: 56 10.1.2.2 > 10.1.1.1) ns3::TcpHeader (8080 > 49153 [SYN|ACK] Seq=0 Ack=1 Win=65535 ns3::TcpOptionTS(1010;1000) ns3::TcpOptionWinScale(2) ns3::TcpOptionSackPermitted([sack_perm]) ns3::TcpOptionEnd(EOL))
+ 1.01528 /NodeList/1/DeviceList/0/$ns3::PointToPointNetDevice/TxQueue/Enqueue ns3::PppHeader (Point-to-Point Protocol: IP (0x0021)) ns3::Ipv4Header (tos 0x0 DSCP Default ECN Not-ECT ttl 63 id 0 protocol 6 offset (bytes) 0 flags [none] length: 56 10.1.2.2 > 10.1.1.1) ns3::TcpHeader (8080 > 49153 [SYN|ACK] Seq=0 Ack=1 Win=65535 ns3::TcpOptionTS(1010;1000) ns3::TcpOptionWinScale(2) ns3::TcpOptionSackPermitted([sack_perm]) ns3::TcpOptionEnd(EOL))
- 1.01528 /NodeList/1/DeviceList/0/$ns3::PointToPointNetDevice/TxQueue/Dequeue ns3::PppHeader (Point-to-Point Protocol: IP (0x0021)) ns3::Ipv4Header (tos 0x0 DSCP Default ECN Not-ECT ttl 63 id 0 protocol 6 offset (bytes) 0 flags [none] length: 56 10.1.2.2 > 10.1.1.1) ns3::TcpHeader (8080 > 49153 [SYN|ACK] Seq=0 Ack=1 Win=65535 ns3::TcpOptionTS(1010;1000) ns3::TcpOptionWinScale(2) ns3::TcpOptionSackPermitted([sack_perm]) ns3::TcpOptionEnd(EOL))
r 1.02037 /NodeList/0/DeviceList/0/$ns3::PointToPointNetDevice/MacRx ns3::PppHeader (Point-to-Point Protocol: IP (0x0021)) ns3::Ipv4Header (tos 0x0 DSCP Default ECN Not-ECT ttl 63 id 0 protocol 6 offset (bytes) 0 flags [none] length: 56 10.1.2.2 > 10.1.1.1) ns3::TcpHeader (8080 > 49153 [SYN|ACK] Seq=0 Ack=1 Win=65535 ns3::TcpOptionTS(1010;1000) ns3::TcpOptionWinScale(2) ns3::TcpOptionSackPermitted([sack_perm]) ns3::TcpOptionEnd(EOL))
+ 1.02037 /NodeList/0/DeviceList/0/$ns3::PointToPointNetDevice/TxQueue/Enqueue ns3::PppHeader (Point-to-Point Protocol: IP (0x0021)) ns3::Ipv4Header (tos 0x0 DSCP Default ECN Not-ECT ttl 64 id 1 protocol 6 offset (bytes) 0 flags [none] length: 52 10.1.1.1 > 10.1.2.2) ns3::TcpHeader (49153 > 8080 [ACK] Seq=1 Ack=1 Win=32768 ns3::TcpOptionTS(1020;1010) ns3::TcpOptionEnd(EOL))
- 1.02037 /NodeList/0/DeviceList/0/$ns3::PointToPointNetDevice/TxQueue/Dequeue ns3::PppHeader (Point-to-Point Protocol: IP (0x0021)) ns3::Ipv4Header (tos 0x0 DSCP Default ECN Not-ECT ttl 64 id 1 protocol 6 offset (bytes) 0 flags [none] length: 52 10.1.1.1 > 10.1.2.2) ns3::TcpHeader (49153 > 8080 [ACK] Seq=1 Ack=1 Win=32768 ns3::TcpOptionTS(1020;1010) ns3::TcpOptionEnd(EOL))
+ 1.02037 /NodeList/0/DeviceList/0/$ns3::PointToPointNetDevice/TxQueue/Enqueue ns3::PppHeader (Point-to-Point Protocol: IP (0x0021)) ns3::Ipv4Header (tos 0x0 DSCP Default ECN Not-ECT ttl 64 id 2 protocol 6 offset (bytes) 0 flags [none] length: 588 10.1.1.1 > 10.1.2.2) ns3::TcpHeader (49153 > 8080 [ACK] Seq=1 Ack=1 Win=32768 ns3::TcpOptionTS(1020;1010) ns3::TcpOptionEnd(EOL)) Payload Fragment [0:536]
- 1.02046 /NodeList/0/DeviceList/0/$ns3::PointToPointNetDevice/TxQueue/Dequeue ns3::PppHeader (Point-to-Point Protocol: IP (0x0021)) ns3::Ipv4Header (tos 0x0 DSCP Default ECN Not-ECT ttl 64 id 2 protocol 6 offset (bytes) 0 flags [none] length: 588 10.1.1.1 > 10.1.2.2) ns3::TcpHeader (49153 > 8080 [ACK] Seq=1 Ack=1 Win=32768 ns3::TcpOptionTS(1020;1010) ns3::TcpOptionEnd(EOL)) Payload Fragment [0:536]
r 1.02546 /NodeList/1/DeviceList/0/$ns3::PointToPointNetDevice/MacRx ns3::PppHeader (Point-to-Point Protocol: IP (0x0021)) ns3::Ipv4Header (tos 0x0 DSCP Default ECN Not-ECT ttl 64 id 1 protocol 6 offset (bytes) 0 flags [none] length: 52 10.1.1.1 > 10.1.2.2) ns3::TcpHeader (49153 > 8080 [ACK] Seq=1 Ack=1 Win=32768 ns3::TcpOptionTS(1020;1010) ns3::TcpOptionEnd(EOL))
+ 1.02546 /NodeList/1/DeviceList/1/$ns3::PointToPointNetDevice/TxQueue/Enqueue ns3::PppHeader (Point-to-Point Protocol: IP (0x0021)) ns3::Ipv4Header (tos 0x0 DSCP Default ECN Not-ECT ttl 63 id 1 protocol 6 offset (bytes) 0 flags [none] length: 52 10.1.1.1 > 10.1.2.2) ns3::TcpHeader (49153 > 8080 [ACK] Seq=1 Ack=1 Win=32768 ns3::TcpOptionTS(1020;1010) ns3::TcpOptionEnd(EOL))
- 1.02546 /NodeList/1/DeviceList/1/$ns3::PointToPointNetDevice/TxQueue/Dequeue ns3::PppHeader (Point-to-Point Protocol: IP (0x0021)) ns3::Ipv4Header (tos 0x0 DSCP Default ECN Not-ECT ttl 63 id 1 protocol 6 offset (bytes) 0 flags [none] length: 52 10.1.1.1 > 10.1.2.2) ns3::TcpHeader (49153 > 8080 [ACK] Seq=1 Ack=1 Win=32768 ns3::TcpOptionTS(1020;1010) ns3::TcpOptionEnd(EOL))
r 1.0264 /NodeList/1/DeviceList/0/$ns3::PointToPointNetDevice/MacRx ns3::PppHeader (Point-to-Point Protocol: IP (0x0021)) ns3::Ipv4Header (tos 0x0 DSCP Default ECN Not-ECT ttl 64 id 2 protocol 6 offset (bytes) 0 flags [none] length: 588 10.1.1.1 > 10.1.2.2) ns3::TcpHeader (49153 > 8080 [ACK] Seq=1 Ack=1 Win=32768 ns3::TcpOptionTS(1020;1010) ns3::TcpOptionEnd(EOL)) Payload Fragment [0:536]
+ 1.0264 /NodeList/1/DeviceList/1/$ns3::PointToPointNetDevice/TxQueue/Enqueue ns3::PppHeader (Point-to-Point Protocol: IP (0x0021)) ns3::Ipv4Header (tos 0x0 DSCP Default ECN Not-ECT ttl 63 id 2 protocol 6 offset (bytes) 0 flags [none] length: 588 10.1.1.1 > 10.1.2.2) ns3::TcpHeader (49153 > 8080 [ACK] Seq=1 Ack=1 Win=32768 ns3::TcpOptionTS(1020;1010) ns3::TcpOptionEnd(EOL)) Payload Fragment [0:536]
- 1.0264 /NodeList/1/DeviceList/1/$ns3::PointToPointNetDevice/TxQueue/Dequeue ns3::PppHeader (Point-to-Point Protocol: IP (0x0021)) ns3::Ipv4Header (tos 0x0 DSCP Default ECN Not-ECT ttl 63 id 2 protocol 6 offset (bytes) 0 flags [none] length: 588 10.1.1.1 > 10.1.2.2) ns3::TcpHeader (49153 > 8080 [ACK] Seq=1 Ack=1 Win=32768 ns3::TcpOptionTS(1020;1010) ns3::TcpOptionEnd(EOL)) Payload Fragment [0:536]
r 1.03054 /NodeList/2/DeviceList/0/$ns3::PointToPointNetDevice/MacRx ns3::PppHeader (Point-to-Point Protocol: IP (0x0021)) ns3::Ipv4Header (tos 0x0 DSCP Default ECN Not-ECT ttl 63 id 1 protocol 6 offset (bytes) 0 flags [none] length: 52 10.1.1.1 > 10.1.2.2) ns3::TcpHeader (49153 > 8080 [ACK] Seq=1 Ack=1 Win=32768 ns3::TcpOptionTS(1020;1010) ns3::TcpOptionEnd(EOL))
r 1.03235 /NodeList/2/DeviceList/0/$ns3::PointToPointNetDevice/MacRx ns3::PppHeader (Point-to-Point Protocol: IP (0x0021)) ns3::Ipv4Header (tos 0x0 DSCP Default ECN Not-ECT ttl 63 id 2 protocol 6 offset (bytes) 0 flags [none] length: 588 10.1.1.1 > 10.1.2.2) ns3::TcpHeader (49153 > 8080 [ACK] Seq=1 Ack=1 Win=32768 ns3::TcpOptionTS(1020;1010) ns3::TcpOptionEnd(EOL)) Payload Fragment [0:536]
+ 1.03235 /NodeList/2/DeviceList/0/$ns3::PointToPointNetDevice/TxQueue/Enqueue ns3::PppHeader (Point-to-Point Protocol: IP (0x0021)) ns3::Ipv4Header (tos 0x0 DSCP Default ECN Not-ECT ttl 64 id 1 protocol 6 offset (bytes) 0 flags [none] length: 52 10.1.2.2 > 10.1.1.1) ns3::TcpHeader (8080 > 49153 [ACK] Seq=1 Ack=537 Win=32768 ns3::TcpOptionTS(1032;1020) ns3::TcpOptionEnd(EOL))
- 1.03235 /NodeList/2/DeviceList/0/$ns3::PointToPointNetDevice/TxQueue/Dequeue ns3::PppHeader (Point-to-Point Protocol: IP (0x0021)) ns3::Ipv4Header (tos 0x0 DSCP Default ECN Not-ECT ttl 64 id 1 protocol 6 offset (bytes) 0 flags [none] length: 52 10.1.2.2 > 10.1.1.1) ns3::TcpHeader (8080 > 49153 [ACK] Seq=1 Ack=537 Win=32768 ns3::TcpOptionTS(1032;1020) ns3::TcpOptionEnd(EOL))
r 1.03743 /NodeList/1/DeviceList/1/$ns3::PointToPointNetDevice/MacRx ns3::PppHeader (Point-to-Point Protocol: IP (0x0021)) ns3::Ipv4Header (tos 0x0 DSCP Default ECN Not-ECT ttl 64 id 1 protocol 6 offset (bytes) 0 flags [none] length: 52 10.1.2.2 > 10.1.1.1) ns3::TcpHeader (8080 > 49153 [ACK] Seq=1 Ack=537 Win=32768 ns3::TcpOptionTS(1032;1020) ns3::TcpOptionEnd(EOL))
+ 1.03743 /NodeList/1/DeviceList/0/$ns3::PointToPointNetDevice/TxQueue/Enqueue ns3::PppHeader (Point-to-Point Protocol: IP (0x0021)) ns3::Ipv4Header (tos 0x0 DSCP Default ECN Not-ECT ttl 63 id 1 protocol 6 offset (bytes) 0 flags [none] length: 52 10.1.2.2 > 10.1.1.1) ns3::TcpHeader (8080 > 49153 [ACK] Seq=1 Ack=537 Win=32768 ns3::TcpOptionTS(1032;1020) ns3::TcpOptionEnd(EOL))
- 1.03743 /NodeList/1/DeviceList/0/$ns3::PointToPointNetDevice/TxQueue/Dequeue ns3::PppHeader (Point-to-Point Protocol: IP (0x0021)) ns3::Ipv4Header (tos 0x0 DSCP Default ECN Not-ECT ttl 63 id 1 protocol 6 offset (bytes) 0 flags [none] length: 52 10.1.2.2 > 10.1.1.1) ns3::TcpHeader (8080 > 49153 [ACK] Seq=1 Ack=537 Win=32768 ns3::TcpOptionTS(1032;1020) ns3::TcpOptionEnd(EOL))
r 1.04252 /NodeList/0/DeviceList/0/$ns3::PointToPointNetDevice/MacRx ns3::PppHeader (Point-to-Point Protocol: IP (0x0021)) ns3::Ipv4Header (tos 0x0 DSCP Default ECN Not-ECT ttl 63 id 1 protocol 6 offset (bytes) 0 flags [none] length: 52 10.1.2.2 > 10.1.1.1) ns3::TcpHeader (8080 > 49153 [ACK] Seq=1 Ack=537 Win=32768 ns3::TcpOptionTS(1032;1020) ns3::TcpOptionEnd(EOL))
+ 1.04252 /NodeList/0/DeviceList/0/$ns3::PointToPointNetDevice/TxQueue/Enqueue ns3::PppHeader (Point-to-Point Protocol: IP (0x0021)) ns3::Ipv4Header (tos 0x0 DSCP Default ECN Not-ECT ttl 64 id 3 protocol 6 offset (bytes) 0 flags [none] length: 588 10.1.1.1 > 10.1.2.2) ns3::TcpHeader (49153 > 8080 [ACK] Seq=537 Ack=1 Win=32768 ns3::TcpOptionTS(1042;1032) ns3::TcpOptionEnd(EOL)) Payload Fragment [536:1024] Payload Fragment [0:48]
- 1.04252 /NodeList/0/DeviceList/0/$ns3::PointToPointNetDevice/TxQueue/Dequeue ns3::PppHeader (Point-to-Point Protocol: IP (0x0021)) ns3::Ipv4Header (tos 0x0 DSCP Default ECN Not-ECT ttl 64 id 3 protocol 6 offset (bytes) 0 flags [none] length: 588 10.1.1.1 > 10.1.2.2) ns3::TcpHeader (49153 > 8080 [ACK] Seq=537 Ack=1 Win=32768 ns3::TcpOptionTS(1042;1032) ns3::TcpOptionEnd(EOL)) Payload Fragment [536:1024] Payload Fragment [0:48]
+ 1.04252 /NodeList/0/DeviceList/0/$ns3::PointToPointNetDevice/TxQueue/Enqueue ns3::PppHeader (Point-to-Point Protocol: IP (0x0021)) ns3::Ipv4Header (tos 0x0 DSCP Default ECN Not-ECT ttl 64 id 4 protocol 6 offset (bytes) 0 flags [none] length: 588 10.1.1.1 > 10.1.2.2) ns3::TcpHeader (49153 > 8080 [ACK] Seq=1073 Ack=1 Win=32768 ns3::TcpOptionTS(1042;1032) ns3::TcpOptionEnd(EOL)) Payload Fragment [48:584]
- 1.04346 /NodeList/0/DeviceList/0/$ns3::PointToPointNetDevice/TxQueue/Dequeue ns3::PppHeader (Point-to-Point Protocol: IP (0x0021)) ns3::Ipv4Header (tos 0x0 DSCP Default ECN Not-ECT ttl 64 id 4 protocol 6 offset (bytes) 0 flags [none] length: 588 10.1.1.1 > 10.1.2.2) ns3::TcpHeader (49153 > 8080 [ACK] Seq=1073 Ack=1 Win=32768 ns3::TcpOptionTS(1042;1032) ns3::TcpOptionEnd(EOL)) Payload Fragment [48:584]
r 1.04846 /NodeList/1/DeviceList/0/$ns3::PointToPointNetDevice/MacRx ns3::PppHeader (Point-to-Point Protocol: IP (0x0021)) ns3::Ipv4Header (tos 0x0 DSCP Default ECN Not-ECT ttl 64 id 3 protocol 6 offset (bytes) 0 flags [none] length: 588 10.1.1.1 > 10.1.2.2) ns3::TcpHeader (49153 > 8080 [ACK] Seq=537 Ack=1 Win=32768 ns3::TcpOptionTS(1042;1032) ns3::TcpOptionEnd(EOL)) Payload Fragment [536:1024] Payload Fragment [0:48]
+ 1.04846 /NodeList/1/DeviceList/1/$ns3::PointToPointNetDevice/TxQueue/Enqueue ns3::PppHeader (Point-to-Point Protocol: IP (0x0021)) ns3::Ipv4Header (tos 0x0 DSCP Default ECN Not-ECT ttl 63 id 3 protocol 6 offset (bytes) 0 flags [none] length: 588 10.1.1.1 > 10.1.2.2) ns3::TcpHeader (49153 > 8080 [ACK] Seq=537 Ack=1 Win=32768 ns3::TcpOptionTS(1042;1032) ns3::TcpOptionEnd(EOL)) Payload Fragment [536:1024] Payload Fragment [0:48]
- 1.04846 /NodeList/1/DeviceList/1/$ns3::PointToPointNetDevice/TxQueue/Dequeue ns3::PppHeader (Point-to-Point Protocol: IP (0x0021)) ns3::Ipv4Header (tos 0x0 DSCP Default ECN Not-ECT ttl 63 id 3 protocol 6 offset (bytes) 0 flags [none] length: 588 10.1.1.1 > 10.1.2.2) ns3::TcpHeader (49153 > 8080 [ACK] Seq=537 Ack=1 Win=32768 ns3::TcpOptionTS(1042;1032) ns3::TcpOptionEnd(EOL)) Payload Fragment [536:1024] Payload Fragment [0:48]
r 1.04941 /NodeList/1/DeviceList/0/$ns3::PointToPointNetDevice/MacRx ns3::PppHeader (Point-to-Point Protocol: IP (0x0021)) ns3::Ipv4Header (tos 0x0 DSCP Default ECN Not-ECT ttl 64 id 4 protocol 6 offset (bytes) 0 flags [none] length: 588 10.1.1.1 > 10.1.2.2) ns3::TcpHeader (49153 > 8080 [ACK] Seq=1073 Ack=1 Win=32768 ns3::TcpOptionTS(1042;1032) ns3::TcpOptionEnd(EOL)) Payload Fragment [48:584]
+ 1.04941 /NodeList/1/DeviceList/1/$ns3::PointToPointNetDevice/TxQueue/Enqueue ns3::PppHeader (Point-to-Point Protocol: IP (0x0021)) ns3::Ipv4Header (tos 0x0 DSCP Default ECN Not-ECT ttl 63 id 4 protocol 6 offset (bytes) 0 flags [none] length: 588 10.1.1.1 > 10.1.2.2) ns3::TcpHeader (49153 > 8080 [ACK] Seq=1073 Ack=1 Win=32768 ns3::TcpOptionTS(1042;1032) ns3::TcpOptionEnd(EOL)) Payload Fragment [48:584]
- 1.04941 /NodeList/1/DeviceList/1/$ns3::PointToPointNetDevice/TxQueue/Dequeue ns3::PppHeader (Point-to-Point Protocol: IP (0x0021)) ns3::Ipv4Header (tos 0x0 DSCP Default ECN Not-ECT ttl 63 id 4 protocol 6 offset (bytes) 0 flags [none] length: 588 10.1.1.1 > 10.1.2.2) ns3::TcpHeader (49153 > 8080 [ACK] Seq=1073 Ack=1 Win=32768 ns3::TcpOptionTS(1042;1032) ns3::TcpOptionEnd(EOL)) Payload Fragment [48:584]
r 1.05441 /NodeList/2/DeviceList/0/$ns3::PointToPointNetDevice/MacRx ns3::PppHeader (Point-to-Point Protocol: IP (0x0021)) ns3::Ipv4Header (tos 0x0 DSCP Default ECN Not-ECT ttl 63 id 3 protocol 6 offset (bytes) 0 flags [none] length: 588 10.1.1.1 > 10.1.2.2) ns3::TcpHeader (49153 > 8080 [ACK] Seq=537 Ack=1 Win=32768 ns3::TcpOptionTS(1042;1032) ns3::TcpOptionEnd(EOL)) Payload Fragment [536:1024] Payload Fragment [0:48]
r 1.05535 /NodeList/2/DeviceList/0/$ns3::PointToPointNetDevice/MacRx ns3::PppHeader (Point-to-Point Protocol: IP (0x0021)) ns3::Ipv4Header (tos 0x0 DSCP Default ECN Not-ECT ttl 63 id 4 protocol 6 offset (bytes) 0 flags [none] length: 588 10.1.1.1 > 10.1.2.2) ns3::TcpHeader (49153 > 8080 [ACK] Seq=1073 Ack=1 Win=32768 ns3::TcpOptionTS(1042;1032) ns3::TcpOptionEnd(EOL)) Payload Fragment [48:584]
+ 1.05535 /NodeList/2/DeviceList/0/$ns3::PointToPointNetDevice/TxQueue/Enqueue ns3::PppHeader (Point-to-Point Protocol: IP (0x0021)) ns3::Ipv4Header (tos 0x0 DSCP Default ECN Not-ECT ttl 64 id 2 protocol 6 offset (bytes) 0 flags [none] length: 52 10.1.2.2 > 10.1.1.1) ns3::TcpHeader (8080 > 49153 [ACK] Seq=1 Ack=1609 Win=32768 ns3::TcpOptionTS(1055;1042) ns3::TcpOptionEnd(EOL))
- 1.05535 /NodeList/2/DeviceList/0/$ns3::PointToPointNetDevice/TxQueue/Dequeue ns3::PppHeader (Point-to-Point Protocol: IP (0x0021)) ns3::Ipv4Header (tos 0x0 DSCP Default ECN Not-ECT ttl 64 id 2 protocol 6 offset (bytes) 0 flags [none] length: 52 10.1.2.2 > 10.1.1.1) ns3::TcpHeader (8080 > 49153 [ACK] Seq=1 Ack=1609 Win=32768 ns3::TcpOptionTS(1055;1042) ns3::TcpOptionEnd(EOL))
r 1.06044 /NodeList/1/DeviceList/1/$ns3::PointToPointNetDevice/MacRx ns3::PppHeader (Point-to-Point Protocol: IP (0x0021)) ns3::Ipv4Header (tos 0x0 DSCP Default ECN Not-ECT ttl 64 id 2 protocol 6 offset (bytes) 0 flags [none] length: 52 10.1.2.2 > 10.1.1.1) ns3::TcpHeader (8080 > 49153 [ACK] Seq=1 Ack=1609 Win=32768 ns3::TcpOptionTS(1055;1042) ns3::TcpOptionEnd(EOL))
+ 1.06044 /NodeList/1/DeviceList/0/$ns3::PointToPointNetDevice/TxQueue/Enqueue ns3::PppHeader (Point-to-Point Protocol: IP (0x0021)) ns3::Ipv4Header (tos 0x0 DSCP Default ECN Not-ECT ttl 63 id 2 protocol 6 offset (bytes) 0 flags [none] length: 52 10.1.2.2 > 10.1.1.1) ns3::TcpHeader (8080 > 49153 [ACK] Seq=1 Ack=1609 Win=32768 ns3::TcpOptionTS(1055;1042) ns3::TcpOptionEnd(EOL))
- 1.06044 /NodeList/1/DeviceList/0/$ns3::PointToPointNetDevice/TxQueue/Dequeue ns3::PppHeader (Point-to-Point Protocol: IP (0x0021)) ns3::Ipv4Header (tos 0x0 DSCP Default ECN Not-ECT ttl 63 id 2 protocol 6 offset (bytes) 0 flags [none] length: 52 10.1.2.2 > 10.1.1.1) ns3::TcpHeader (8080 > 49153 [ACK] Seq=1 Ack=1609 Win=32768 ns3::TcpOptionTS(1055;1042) ns3::TcpOptionEnd(EOL))
r 1.06552 /NodeList/0/DeviceList/0/$ns3::PointToPointNetDevice/MacRx ns3::PppHeader (Point-to-Point Protocol: IP (0x0021)) ns3::Ipv4Header (tos 0x0 DSCP Default ECN Not-ECT ttl 63 id 2 protocol 6 offset (bytes) 0 flags [none] length: 52 10.1.2.2 > 10.1.1.1) ns3::TcpHeader (8080 > 49153 [ACK] Seq=1 Ack=1609 Win=32768 ns3::TcpOptionTS(1055;1042) ns3::TcpOptionEnd(EOL))
+ 1.06552 /NodeList/0/DeviceList/0/$ns3::PointToPointNetDevice/TxQueue/Enqueue ns3::PppHeader (Point-to-Point Protocol: IP (0x0021)) ns3::Ipv4Header (tos 0x0 DSCP Default ECN Not-ECT ttl 64 id 5 protocol 6 offset (bytes) 0 flags [none] length: 588 10.1.1.1 > 10.1.2.2) ns3::TcpHeader (49153 > 8080 [ACK] Seq=1609 Ack=1 Win=32768 ns3::TcpOptionTS(1065;1055) ns3::TcpOptionEnd(EOL)) Payload Fragment [584:1024] Payload Fragment [0:96]
- 1.06552 /NodeList/0/DeviceList/0/$ns3::PointToPointNetDevice/TxQueue/Dequeue ns3::PppHeader (Point-to-Point Protocol: IP (0x0021)) ns3::Ipv4Header (tos 0x0 DSCP Default ECN Not-ECT ttl 64 id 5 protocol 6 offset (bytes) 0 flags [none] length: 588 10.1.1.1 > 10.1.2.2) ns3::TcpHeader (49153 > 8080 [ACK] Seq=1609 Ack=1 Win=32768 ns3::TcpOptionTS(1065;1055) ns3::TcpOptionEnd(EOL)) Payload Fragment [584:1024] Payload Fragment [0:96]
+ 1.06552 /NodeList/0/DeviceList/0/$ns3::PointToPointNetDevice/TxQueue/Enqueue ns3::PppHeader (Point-to-Point Protocol: IP (0x0021)) ns3::Ipv4Header (tos 0x0 DSCP Default ECN Not-ECT ttl 64 id 6 protocol 6 offset (bytes) 0 flags [none] length: 588 10.1.1.1 > 10.1.2.2) ns3::TcpHeader (49153 > 8080 [ACK] Seq=2145 Ack=1 Win=32768 ns3::TcpOptionTS(1065;1055) ns3::TcpOptionEnd(EOL)) Payload Fragment [96:632]
- 1.06647 /NodeList/0/DeviceList/0/$ns3::PointToPointNetDevice/TxQueue/Dequeue ns3::PppHeader (Point-to-Point Protocol: IP (0x0021)) ns3::Ipv4Header (tos 0x0 DSCP Default ECN Not-ECT ttl 64 id 6 protocol 6 offset (bytes) 0 flags [none] length: 588 10.1.1.1 > 10.1.2.2) ns3::TcpHeader (49153 > 8080 [ACK] Seq=2145 Ack=1 Win=32768 ns3::TcpOptionTS(1065;1055) ns3::TcpOptionEnd(EOL)) Payload Fragment [96:632]
+ 1.06647 /NodeList/0/DeviceList/0/$ns3::PointToPointNetDevice/TxQueue/Enqueue ns3::PppHeader (Point-to-Point Protocol: IP (0x0021)) ns3::Ipv4Header (tos 0x0 DSCP Default ECN Not-ECT ttl 64 id 7 protocol 6 offset (bytes) 0 flags [none] length: 588 10.1.1.1 > 10.1.2.2) ns3::TcpHeader (49153 > 8080 [ACK] Seq=2681 Ack=1 Win=32768 ns3::TcpOptionTS(1065;1055) ns3::TcpOptionEnd(EOL)) Payload Fragment [632:1024] Payload Fragment [0:144]
- 1.06741 /NodeList/0/DeviceList/0/$ns3::PointToPointNetDevice/TxQueue/Dequeue ns3::PppHeader (Point-to-Point Protocol: IP (0x0021)) ns3::Ipv4Header (tos 0x0 DSCP Default ECN Not-ECT ttl 64 id 7 protocol 6 offset (bytes) 0 flags [none] length: 588 10.1.1.1 > 10.1.2.2) ns3::TcpHeader (49153 > 8080 [ACK] Seq=2681 Ack=1 Win=32768 ns3::TcpOptionTS(1065;1055) ns3::TcpOptionEnd(EOL)) Payload Fragment [632:1024] Payload Fragment [0:144]
r 1.07147 /NodeList/1/DeviceList/0/$ns3::PointToPointNetDevice/MacRx ns3::PppHeader (Point-to-Point Protocol: IP (0x0021)) ns3::Ipv4Header (tos 0x0 DSCP Default ECN Not-ECT ttl 64 id 5 protocol 6 offset (bytes) 0 flags [none] length: 588 10.1.1.1 > 10.1.2.2) ns3::TcpHeader (49153 > 8080 [ACK] Seq=1609 Ack=1 Win=32768 ns3::TcpOptionTS(1065;1055) ns3::TcpOptionEnd(EOL)) Payload Fragment [584:1024] Payload Fragment [0:96]
+ 1.07147 /NodeList/1/DeviceList/1/$ns3::PointToPointNetDevice/TxQueue/Enqueue ns3::PppHeader (Point-to-Point Protocol: IP (0x0021)) ns3::Ipv4Header (tos 0x0 DSCP Default ECN Not-ECT ttl 63 id 5 protocol 6 offset (bytes) 0 flags [none] length: 588 10.1.1.1 > 10.1.2.2) ns3::TcpHeader (49153 > 8080 [ACK] Seq=1609 Ack=1 Win=32768 ns3::TcpOptionTS(1065;1055) ns3::TcpOptionEnd(EOL)) Payload Fragment [584:1024] Payload Fragment [0:96]
- 1.07147 /NodeList/1/DeviceList/1/$ns3::PointToPointNetDevice/TxQueue/Dequeue ns3::PppHeader (Point-to-Point Protocol: IP (0x0021)) ns3::Ipv4Header (tos 0x0 DSCP Default ECN Not-ECT ttl 63 id 5 protocol 6 offset (bytes) 0 flags [none] length: 588 10.1.1.1 > 10.1.2.2) ns3::TcpHeader (49153 > 8080 [ACK] Seq=1609 Ack=1 Win=32768 ns3::TcpOptionTS(1065;1055) ns3::TcpOptionEnd(EOL)) Payload Fragment [584:1024] Payload Fragment [0:96]
r 1.07241 /NodeList/1/DeviceList/0/$ns3::PointToPointNetDevice/MacRx ns3::PppHeader (Point-to-Point Protocol: IP (0x0021)) ns3::Ipv4Header (tos 0x0 DSCP Default ECN Not-ECT ttl 64 id 6 protocol 6 offset (bytes) 0 flags [none] length: 588 10.1.1.1 > 10.1.2.2) ns3::TcpHeader (49153 > 8080 [ACK] Seq=2145 Ack=1 Win=32768 ns3::TcpOptionTS(1065;1055) ns3::TcpOptionEnd(EOL)) Payload Fragment [96:632]
+ 1.07241 /NodeList/1/DeviceList/1/$ns3::PointToPointNetDevice/TxQueue/Enqueue ns3::PppHeader (Point-to-Point Protocol: IP (0x0021)) ns3::Ipv4Header (tos 0x0 DSCP Default ECN Not-ECT ttl 63 id 6 protocol 6 offset (bytes) 0 flags [none] length: 588 10.1.1.1 > 10.1.2.2) ns3::TcpHeader (49153 > 8080 [ACK] Seq=2145 Ack=1 Win=32768 ns3::TcpOptionTS(1065;1055) ns3::TcpOptionEnd(EOL)) Payload Fragment [96:632]
- 1.07241 /NodeList/1/DeviceList/1/$ns3::PointToPointNetDevice/TxQueue/Dequeue ns3::PppHeader (Point-to-Point Protocol: IP (0x0021)) ns3::Ipv4Header (tos 0x0 DSCP Default ECN Not-ECT ttl 63 id 6 protocol 6 offset (bytes) 0 flags [none] length: 588 10.1.1.1 > 10.1.2.2) ns3::TcpHeader (49153 > 8080 [ACK] Seq=2145 Ack=1 Win=32768 ns3::TcpOptionTS(1065;1055) ns3::TcpOptionEnd(EOL)) Payload Fragment [96:632]
r 1.07336 /NodeList/1/DeviceList/0/$ns3::PointToPointNetDevice/MacRx ns3::PppHeader (Point-to-Point Protocol: IP (0x0021)) ns3::Ipv4Header (tos 0x0 DSCP Default ECN Not-ECT ttl 64 id 7 protocol 6 offset (bytes) 0 flags [none] length: 588 10.1.1.1 > 10.1.2.2) ns3::TcpHeader (49153 > 8080 [ACK] Seq=2681 Ack=1 Win=32768 ns3::TcpOptionTS(1065;1055) ns3::TcpOptionEnd(EOL)) Payload Fragment [632:1024] Payload Fragment [0:144]
+ 1.07336 /NodeList/1/DeviceList/1/$ns3::PointToPointNetDevice/TxQueue/Enqueue ns3::PppHeader (Point-to-Point Protocol: IP (0x0021)) ns3::Ipv4Header (tos 0x0 DSCP Default ECN Not-ECT ttl 63 id 7 protocol 6 offset (bytes) 0 flags [none] length: 588 10.1.1.1 > 10.1.2.2) ns3::TcpHeader (49153 > 8080 [ACK] Seq=2681 Ack=1 Win=32768 ns3::TcpOptionTS(1065;1055) ns3::TcpOptionEnd(EOL)) Payload Fragment [632:1024] Payload Fragment [0:144]
- 1.07336 /NodeList/1/DeviceList/1/$ns3::PointToPointNetDevice/TxQueue/Dequeue ns3::PppHeader (Point-to-Point Protocol: IP (0x0021)) ns3::Ipv4Header (tos 0x0 DSCP Default ECN Not-ECT ttl 63 id 7 protocol 6 offset (bytes) 0 flags [none] length: 588 10.1.1.1 > 10.1.2.2) ns3::TcpHeader (49153 > 8080 [ACK] Seq=2681 Ack=1 Win=32768 ns3::TcpOptionTS(1065;1055) ns3::TcpOptionEnd(EOL)) Payload Fragment [632:1024] Payload Fragment [0:144]
r 1.07741 /NodeList/2/DeviceList/0/$ns3::PointToPointNetDevice/MacRx ns3::PppHeader (Point-to-Point Protocol: IP (0x0021)) ns3::Ipv4Header (tos 0x0 DSCP Default ECN Not-ECT ttl 63 id 5 protocol 6 offset (bytes) 0 flags [none] length: 588 10.1.1.1 > 10.1.2.2) ns3::TcpHeader (49153 > 8080 [ACK] Seq=1609 Ack=1 Win=32768 ns3::TcpOptionTS(1065;1055) ns3::TcpOptionEnd(EOL)) Payload Fragment [584:1024] Payload Fragment [0:96]
r 1.07836 /NodeList/2/DeviceList/0/$ns3::PointToPointNetDevice/MacRx ns3::PppHeader (Point-to-Point Protocol: IP (0x0021)) ns3::Ipv4Header (tos 0x0 DSCP Default ECN Not-ECT ttl 63 id 6 protocol 6 offset (bytes) 0 flags [none] length: 588 10.1.1.1 > 10.1.2.2) ns3::TcpHeader (49153 > 8080 [ACK] Seq=2145 Ack=1 Win=32768 ns3::TcpOptionTS(1065;1055) ns3::TcpOptionEnd(EOL)) Payload Fragment [96:632]
+ 1.07836 /NodeList/2/DeviceList/0/$ns3::PointToPointNetDevice/TxQueue/Enqueue ns3::PppHeader (Point-to-Point Protocol: IP (0x0021)) ns3::Ipv4Header (tos 0x0 DSCP Default ECN Not-ECT ttl 64 id 3 protocol 6 offset (bytes) 0 flags [none] length: 52 10.1.2.2 > 10.1.1.1) ns3::TcpHeader (8080 > 49153 [ACK] Seq=1 Ack=2681 Win=32768 ns3::TcpOptionTS(1078;1065) ns3::TcpOptionEnd(EOL))
- 1.07836 /NodeList/2/DeviceList/0/$ns3::PointToPointNetDevice/TxQueue/Dequeue ns3::PppHeader (Point-to-Point Protocol: IP (0x0021)) ns3::Ipv4Header (tos 0x0 DSCP Default ECN Not-ECT ttl 64 id 3 protocol 6 offset (bytes) 0 flags [none] length: 52 10.1.2.2 > 10.1.1.1) ns3::TcpHeader (8080 > 49153 [ACK] Seq=1 Ack=2681 Win=32768 ns3::TcpOptionTS(1078;1065) ns3::TcpOptionEnd(EOL))
r 1.0793 /NodeList/2/DeviceList/0/$ns3::PointToPointNetDevice/MacRx ns3::PppHeader (Point-to-Point Protocol: IP (0x0021)) ns3::Ipv4Header (tos 0x0 DSCP Default ECN Not-ECT ttl 63 id 7 protocol 6 offset (bytes) 0 flags [none] length: 588 10.1.1.1 > 10.1.2.2) ns3::TcpHeader (49153 > 8080 [ACK] Seq=2681 Ack=1 Win=32768 ns3::TcpOptionTS(1065;1055) ns3::TcpOptionEnd(EOL)) Payload Fragment [632:1024] Payload Fragment [0:144]
r 1.08344 /NodeList/1/DeviceList/1/$ns3::PointToPointNetDevice/MacRx ns3::PppHeader (Point-to-Point Protocol: IP (0x0021)) ns3::Ipv4Header (tos 0x0 DSCP Default ECN Not-ECT ttl 64 id 3 protocol 6 offset (bytes) 0 flags [none] length: 52 10.1.2.2 > 10.1.1.1) ns3::TcpHeader (8080 > 49153 [ACK] Seq=1 Ack=2681 Win=32768 ns3::TcpOptionTS(1078;1065) ns3::TcpOptionEnd(EOL))
+ 1.08344 /NodeList/1/DeviceList/0/$ns3::PointToPointNetDevice/TxQueue/Enqueue ns3::PppHeader (Point-to-Point Protocol: IP (0x0021)) ns3::Ipv4Header (tos 0x0 DSCP Default ECN Not-ECT ttl 63 id 3 protocol 6 offset (bytes) 0 flags [none] length: 52 10.1.2.2 > 10.1.1.1) ns3::TcpHeader (8080 > 49153 [ACK] Seq=1 Ack=2681 Win=32768 ns3::TcpOptionTS(1078;1065) ns3::TcpOptionEnd(EOL))
- 1.08344 /NodeList/1/DeviceList/0/$ns3::PointToPointNetDevice/TxQueue/Dequeue ns3::PppHeader (Point-to-Point Protocol: IP (0x0021)) ns3::Ipv4Header (tos 0x0 DSCP Default ECN Not-ECT ttl 63 id 3 protocol 6 offset (bytes) 0 flags [none] length: 52 10.1.2.2 > 10.1.1.1) ns3::TcpHeader (8080 > 49153 [ACK] Seq=1 Ack=2681 Win=32768 ns3::TcpOptionTS(1078;1065) ns3::TcpOptionEnd(EOL))
r 1.08853 /NodeList/0/DeviceList/0/$ns3::PointToPointNetDevice/MacRx ns3::PppHeader (Point-to-Point Protocol: IP (0x0021)) ns3::Ipv4Header (tos 0x0 DSCP Default ECN Not-ECT ttl 63 id 3 protocol 6 offset (bytes) 0 flags [none] length: 52 10.1.2.2 > 10.1.1.1) ns3::TcpHeader (8080 > 49153 [ACK] Seq=1 Ack=2681 Win=32768 ns3::TcpOptionTS(1078;1065) ns3::TcpOptionEnd(EOL))
+ 1.08853 /NodeList/0/DeviceList/0/$ns3::PointToPointNetDevice/TxQueue/Enqueue ns3::PppHeader (Point-to-Point Protocol: IP (0x0021)) ns3::Ipv4Header (tos 0x0 DSCP Default ECN Not-ECT ttl 64 id 8 protocol 6 offset (bytes) 0 flags [none] length: 588 10.1.1.1 > 10.1.2.2) ns3::TcpHeader (49153 > 8080 [ACK] Seq=3217 Ack=1 Win=32768 ns3::TcpOptionTS(1088;1078) ns3::TcpOptionEnd(EOL)) Payload Fragment [144:680]