+ 0 /NodeList/0/DeviceList/0/$ns3::PointToPointNetDevice/TxQueue/Enqueue ns3::PppHeader (Point-to-Point Protocol: IP (0x0021)) ns3::Ipv4Header (tos 0x0 DSCP Default ECN Not-ECT ttl 64 id 0 protocol 6 offset (bytes) 0 flags [none] length: 56 10.1.1.1 > 10.1.2.2) ns3::TcpHeader (49153 > 9 [SYN] Seq=0 Ack=0 Win=65535 ns3::TcpOptionTS(0;0) ns3::TcpOptionWinScale(2) ns3::TcpOptionSackPermitted([sack_perm]) ns3::TcpOptionEnd(EOL))
- 0 /NodeList/0/DeviceList/0/$ns3::PointToPointNetDevice/TxQueue/Dequeue ns3::PppHeader (Point-to-Point Protocol: IP (0x0021)) ns3::Ipv4Header (tos 0x0 DSCP Default ECN Not-ECT ttl 64 id 0 protocol 6 offset (bytes) 0 flags [none] length: 56 10.1.1.1 > 10.1.2.2) ns3::TcpHeader (49153 > 9 [SYN] Seq=0 Ack=0 Win=65535 ns3::TcpOptionTS(0;0) ns3::TcpOptionWinScale(2) ns3::TcpOptionSackPermitted([sack_perm]) ns3::TcpOptionEnd(EOL))
+ 0 /NodeList/0/DeviceList/0/$ns3::PointToPointNetDevice/TxQueue/Enqueue ns3::PppHeader (Point-to-Point Protocol: IP (0x0021)) ns3::Ipv4Header (tos 0x0 DSCP Default ECN Not-ECT ttl 64 id 0 protocol 1 offset (bytes) 0 flags [none] length: 84 10.1.1.1 > 10.1.2.2) ns3::Icmpv4Header (type=8, code=0) ns3::Icmpv4Echo (identifier=0, sequence=0, data size=56)
- 9.28e-05 /NodeList/0/DeviceList/0/$ns3::PointToPointNetDevice/TxQueue/Dequeue ns3::PppHeader (Point-to-Point Protocol: IP (0x0021)) ns3::Ipv4Header (tos 0x0 DSCP Default ECN Not-ECT ttl 64 id 0 protocol 1 offset (bytes) 0 flags [none] length: 84 10.1.1.1 > 10.1.2.2) ns3::Icmpv4Header (type=8, code=0) ns3::Icmpv4Echo (identifier=0, sequence=0, data size=56)
r 0.0050928 /NodeList/1/DeviceList/0/$ns3::PointToPointNetDevice/MacRx ns3::PppHeader (Point-to-Point Protocol: IP (0x0021)) ns3::Ipv4Header (tos 0x0 DSCP Default ECN Not-ECT ttl 64 id 0 protocol 6 offset (bytes) 0 flags [none] length: 56 10.1.1.1 > 10.1.2.2) ns3::TcpHeader (49153 > 9 [SYN] Seq=0 Ack=0 Win=65535 ns3::TcpOptionTS(0;0) ns3::TcpOptionWinScale(2) ns3::TcpOptionSackPermitted([sack_perm]) ns3::TcpOptionEnd(EOL))
+ 0.0050928 /NodeList/1/DeviceList/1/$ns3::PointToPointNetDevice/TxQueue/Enqueue ns3::PppHeader (Point-to-Point Protocol: IP (0x0021)) ns3::Ipv4Header (tos 0x0 DSCP Default ECN Not-ECT ttl 63 id 0 protocol 6 offset (bytes) 0 flags [none] length: 56 10.1.1.1 > 10.1.2.2) ns3::TcpHeader (49153 > 9 [SYN] Seq=0 Ack=0 Win=65535 ns3::TcpOptionTS(0;0) ns3::TcpOptionWinScale(2) ns3::TcpOptionSackPermitted([sack_perm]) ns3::TcpOptionEnd(EOL))
- 0.0050928 /NodeList/1/DeviceList/1/$ns3::PointToPointNetDevice/TxQueue/Dequeue ns3::PppHeader (Point-to-Point Protocol: IP (0x0021)) ns3::Ipv4Header (tos 0x0 DSCP Default ECN Not-ECT ttl 63 id 0 protocol 6 offset (bytes) 0 flags [none] length: 56 10.1.1.1 > 10.1.2.2) ns3::TcpHeader (49153 > 9 [SYN] Seq=0 Ack=0 Win=65535 ns3::TcpOptionTS(0;0) ns3::TcpOptionWinScale(2) ns3::TcpOptionSackPermitted([sack_perm]) ns3::TcpOptionEnd(EOL))
r 0.0052304 /NodeList/1/DeviceList/0/$ns3::PointToPointNetDevice/MacRx ns3::PppHeader (Point-to-Point Protocol: IP (0x0021)) ns3::Ipv4Header (tos 0x0 DSCP Default ECN Not-ECT ttl 64 id 0 protocol 1 offset (bytes) 0 flags [none] length: 84 10.1.1.1 > 10.1.2.2) ns3::Icmpv4Header (type=8, code=0) ns3::Icmpv4Echo (identifier=0, sequence=0, data size=56)
+ 0.0052304 /NodeList/1/DeviceList/1/$ns3::PointToPointNetDevice/TxQueue/Enqueue ns3::PppHeader (Point-to-Point Protocol: IP (0x0021)) ns3::Ipv4Header (tos 0x0 DSCP Default ECN Not-ECT ttl 63 id 0 protocol 1 offset (bytes) 0 flags [none] length: 84 10.1.1.1 > 10.1.2.2) ns3::Icmpv4Header (type=8, code=0) ns3::Icmpv4Echo (identifier=0, sequence=0, data size=56)
- 0.0052304 /NodeList/1/DeviceList/1/$ns3::PointToPointNetDevice/TxQueue/Dequeue ns3::PppHeader (Point-to-Point Protocol: IP (0x0021)) ns3::Ipv4Header (tos 0x0 DSCP Default ECN Not-ECT ttl 63 id 0 protocol 1 offset (bytes) 0 flags [none] length: 84 10.1.1.1 > 10.1.2.2) ns3::Icmpv4Header (type=8, code=0) ns3::Icmpv4Echo (identifier=0, sequence=0, data size=56)
r 0.0101856 /NodeList/2/DeviceList/0/$ns3::PointToPointNetDevice/MacRx ns3::PppHeader (Point-to-Point Protocol: IP (0x0021)) ns3::Ipv4Header (tos 0x0 DSCP Default ECN Not-ECT ttl 63 id 0 protocol 6 offset (bytes) 0 flags [none] length: 56 10.1.1.1 > 10.1.2.2) ns3::TcpHeader (49153 > 9 [SYN] Seq=0 Ack=0 Win=65535 ns3::TcpOptionTS(0;0) ns3::TcpOptionWinScale(2) ns3::TcpOptionSackPermitted([sack_perm]) ns3::TcpOptionEnd(EOL))
+ 0.0101856 /NodeList/2/DeviceList/0/$ns3::PointToPointNetDevice/TxQueue/Enqueue ns3::PppHeader (Point-to-Point Protocol: IP (0x0021)) ns3::Ipv4Header (tos 0x0 DSCP Default ECN Not-ECT ttl 64 id 0 protocol 6 offset (bytes) 0 flags [none] length: 56 10.1.2.2 > 10.1.1.1) ns3::TcpHeader (9 > 49153 [SYN|ACK] Seq=0 Ack=1 Win=65535 ns3::TcpOptionTS(10;0) ns3::TcpOptionWinScale(2) ns3::TcpOptionSackPermitted([sack_perm]) ns3::TcpOptionEnd(EOL))
- 0.0101856 /NodeList/2/DeviceList/0/$ns3::PointToPointNetDevice/TxQueue/Dequeue ns3::PppHeader (Point-to-Point Protocol: IP (0x0021)) ns3::Ipv4Header (tos 0x0 DSCP Default ECN Not-ECT ttl 64 id 0 protocol 6 offset (bytes) 0 flags [none] length: 56 10.1.2.2 > 10.1.1.1) ns3::TcpHeader (9 > 49153 [SYN|ACK] Seq=0 Ack=1 Win=65535 ns3::TcpOptionTS(10;0) ns3::TcpOptionWinScale(2) ns3::TcpOptionSackPermitted([sack_perm]) ns3::TcpOptionEnd(EOL))
r 0.010368 /NodeList/2/DeviceList/0/$ns3::PointToPointNetDevice/MacRx ns3::PppHeader (Point-to-Point Protocol: IP (0x0021)) ns3::Ipv4Header (tos 0x0 DSCP Default ECN Not-ECT ttl 63 id 0 protocol 1 offset (bytes) 0 flags [none] length: 84 10.1.1.1 > 10.1.2.2) ns3::Icmpv4Header (type=8, code=0) ns3::Icmpv4Echo (identifier=0, sequence=0, data size=56)
+ 0.010368 /NodeList/2/DeviceList/0/$ns3::PointToPointNetDevice/TxQueue/Enqueue ns3::PppHeader (Point-to-Point Protocol: IP (0x0021)) ns3::Ipv4Header (tos 0x0 DSCP Default ECN Not-ECT ttl 64 id 0 protocol 1 offset (bytes) 0 flags [none] length: 84 10.1.2.2 > 10.1.1.1) ns3::Icmpv4Header (type=0, code=0) ns3::Icmpv4Echo (identifier=0, sequence=0, data size=56)
- 0.010368 /NodeList/2/DeviceList/0/$ns3::PointToPointNetDevice/TxQueue/Dequeue ns3::PppHeader (Point-to-Point Protocol: IP (0x0021)) ns3::Ipv4Header (tos 0x0 DSCP Default ECN Not-ECT ttl 64 id 0 protocol 1 offset (bytes) 0 flags [none] length: 84 10.1.2.2 > 10.1.1.1) ns3::Icmpv4Header (type=0, code=0) ns3::Icmpv4Echo (identifier=0, sequence=0, data size=56)
r 0.0152784 /NodeList/1/DeviceList/1/$ns3::PointToPointNetDevice/MacRx ns3::PppHeader (Point-to-Point Protocol: IP (0x0021)) ns3::Ipv4Header (tos 0x0 DSCP Default ECN Not-ECT ttl 64 id 0 protocol 6 offset (bytes) 0 flags [none] length: 56 10.1.2.2 > 10.1.1.1) ns3::TcpHeader (9 > 49153 [SYN|ACK] Seq=0 Ack=1 Win=65535 ns3::TcpOptionTS(10;0) ns3::TcpOptionWinScale(2) ns3::TcpOptionSackPermitted([sack_perm]) ns3::TcpOptionEnd(EOL))
+ 0.0152784 /NodeList/1/DeviceList/0/$ns3::PointToPointNetDevice/TxQueue/Enqueue ns3::PppHeader (Point-to-Point Protocol: IP (0x0021)) ns3::Ipv4Header (tos 0x0 DSCP Default ECN Not-ECT ttl 63 id 0 protocol 6 offset (bytes) 0 flags [none] length: 56 10.1.2.2 > 10.1.1.1) ns3::TcpHeader (9 > 49153 [SYN|ACK] Seq=0 Ack=1 Win=65535 ns3::TcpOptionTS(10;0) ns3::TcpOptionWinScale(2) ns3::TcpOptionSackPermitted([sack_perm]) ns3::TcpOptionEnd(EOL))
- 0.0152784 /NodeList/1/DeviceList/0/$ns3::PointToPointNetDevice/TxQueue/Dequeue ns3::PppHeader (Point-to-Point Protocol: IP (0x0021)) ns3::Ipv4Header (tos 0x0 DSCP Default ECN Not-ECT ttl 63 id 0 protocol 6 offset (bytes) 0 flags [none] length: 56 10.1.2.2 > 10.1.1.1) ns3::TcpHeader (9 > 49153 [SYN|ACK] Seq=0 Ack=1 Win=65535 ns3::TcpOptionTS(10;0) ns3::TcpOptionWinScale(2) ns3::TcpOptionSackPermitted([sack_perm]) ns3::TcpOptionEnd(EOL))
r 0.0155056 /NodeList/1/DeviceList/1/$ns3::PointToPointNetDevice/MacRx ns3::PppHeader (Point-to-Point Protocol: IP (0x0021)) ns3::Ipv4Header (tos 0x0 DSCP Default ECN Not-ECT ttl 64 id 0 protocol 1 offset (bytes) 0 flags [none] length: 84 10.1.2.2 > 10.1.1.1) ns3::Icmpv4Header (type=0, code=0) ns3::Icmpv4Echo (identifier=0, sequence=0, data size=56)
+ 0.0155056 /NodeList/1/DeviceList/0/$ns3::PointToPointNetDevice/TxQueue/Enqueue ns3::PppHeader (Point-to-Point Protocol: IP (0x0021)) ns3::Ipv4Header (tos 0x0 DSCP Default ECN Not-ECT ttl 63 id 0 protocol 1 offset (bytes) 0 flags [none] length: 84 10.1.2.2 > 10.1.1.1) ns3::Icmpv4Header (type=0, code=0) ns3::Icmpv4Echo (identifier=0, sequence=0, data size=56)
- 0.0155056 /NodeList/1/DeviceList/0/$ns3::PointToPointNetDevice/TxQueue/Dequeue ns3::PppHeader (Point-to-Point Protocol: IP (0x0021)) ns3::Ipv4Header (tos 0x0 DSCP Default ECN Not-ECT ttl 63 id 0 protocol 1 offset (bytes) 0 flags [none] length: 84 10.1.2.2 > 10.1.1.1) ns3::Icmpv4Header (type=0, code=0) ns3::Icmpv4Echo (identifier=0, sequence=0, data size=56)
r 0.0203712 /NodeList/0/DeviceList/0/$ns3::PointToPointNetDevice/MacRx ns3::PppHeader (Point-to-Point Protocol: IP (0x0021)) ns3::Ipv4Header (tos 0x0 DSCP Default ECN Not-ECT ttl 63 id 0 protocol 6 offset (bytes) 0 flags [none] length: 56 10.1.2.2 > 10.1.1.1) ns3::TcpHeader (9 > 49153 [SYN|ACK] Seq=0 Ack=1 Win=65535 ns3::TcpOptionTS(10;0) ns3::TcpOptionWinScale(2) ns3::TcpOptionSackPermitted([sack_perm]) ns3::TcpOptionEnd(EOL))
+ 0.0203712 /NodeList/0/DeviceList/0/$ns3::PointToPointNetDevice/TxQueue/Enqueue ns3::PppHeader (Point-to-Point Protocol: IP (0x0021)) ns3::Ipv4Header (tos 0x0 DSCP Default ECN Not-ECT ttl 64 id 1 protocol 6 offset (bytes) 0 flags [none] length: 52 10.1.1.1 > 10.1.2.2) ns3::TcpHeader (49153 > 9 [ACK] Seq=1 Ack=1 Win=32768 ns3::TcpOptionTS(20;10) ns3::TcpOptionEnd(EOL))
- 0.0203712 /NodeList/0/DeviceList/0/$ns3::PointToPointNetDevice/TxQueue/Dequeue ns3::PppHeader (Point-to-Point Protocol: IP (0x0021)) ns3::Ipv4Header (tos 0x0 DSCP Default ECN Not-ECT ttl 64 id 1 protocol 6 offset (bytes) 0 flags [none] length: 52 10.1.1.1 > 10.1.2.2) ns3::TcpHeader (49153 > 9 [ACK] Seq=1 Ack=1 Win=32768 ns3::TcpOptionTS(20;10) ns3::TcpOptionEnd(EOL))
+ 0.0203712 /NodeList/0/DeviceList/0/$ns3::PointToPointNetDevice/TxQueue/Enqueue ns3::PppHeader (Point-to-Point Protocol: IP (0x0021)) ns3::Ipv4Header (tos 0x0 DSCP Default ECN Not-ECT ttl 64 id 2 protocol 6 offset (bytes) 0 flags [none] length: 588 10.1.1.1 > 10.1.2.2) ns3::TcpHeader (49153 > 9 [ACK] Seq=1 Ack=1 Win=32768 ns3::TcpOptionTS(20;10) ns3::TcpOptionEnd(EOL)) Payload (size=512) Payload Fragment [0:24]
- 0.0204576 /NodeList/0/DeviceList/0/$ns3::PointToPointNetDevice/TxQueue/Dequeue ns3::PppHeader (Point-to-Point Protocol: IP (0x0021)) ns3::Ipv4Header (tos 0x0 DSCP Default ECN Not-ECT ttl 64 id 2 protocol 6 offset (bytes) 0 flags [none] length: 588 10.1.1.1 > 10.1.2.2) ns3::TcpHeader (49153 > 9 [ACK] Seq=1 Ack=1 Win=32768 ns3::TcpOptionTS(20;10) ns3::TcpOptionEnd(EOL)) Payload (size=512) Payload Fragment [0:24]
r 0.0206432 /NodeList/0/DeviceList/0/$ns3::PointToPointNetDevice/MacRx ns3::PppHeader (Point-to-Point Protocol: IP (0x0021)) ns3::Ipv4Header (tos 0x0 DSCP Default ECN Not-ECT ttl 63 id 0 protocol 1 offset (bytes) 0 flags [none] length: 84 10.1.2.2 > 10.1.1.1) ns3::Icmpv4Header (type=0, code=0) ns3::Icmpv4Echo (identifier=0, sequence=0, data size=56)
r 0.0254576 /NodeList/1/DeviceList/0/$ns3::PointToPointNetDevice/MacRx ns3::PppHeader (Point-to-Point Protocol: IP (0x0021)) ns3::Ipv4Header (tos 0x0 DSCP Default ECN Not-ECT ttl 64 id 1 protocol 6 offset (bytes) 0 flags [none] length: 52 10.1.1.1 > 10.1.2.2) ns3::TcpHeader (49153 > 9 [ACK] Seq=1 Ack=1 Win=32768 ns3::TcpOptionTS(20;10) ns3::TcpOptionEnd(EOL))
+ 0.0254576 /NodeList/1/DeviceList/1/$ns3::PointToPointNetDevice/TxQueue/Enqueue ns3::PppHeader (Point-to-Point Protocol: IP (0x0021)) ns3::Ipv4Header (tos 0x0 DSCP Default ECN Not-ECT ttl 63 id 1 protocol 6 offset (bytes) 0 flags [none] length: 52 10.1.1.1 > 10.1.2.2) ns3::TcpHeader (49153 > 9 [ACK] Seq=1 Ack=1 Win=32768 ns3::TcpOptionTS(20;10) ns3::TcpOptionEnd(EOL))
- 0.0254576 /NodeList/1/DeviceList/1/$ns3::PointToPointNetDevice/TxQueue/Dequeue ns3::PppHeader (Point-to-Point Protocol: IP (0x0021)) ns3::Ipv4Header (tos 0x0 DSCP Default ECN Not-ECT ttl 63 id 1 protocol 6 offset (bytes) 0 flags [none] length: 52 10.1.1.1 > 10.1.2.2) ns3::TcpHeader (49153 > 9 [ACK] Seq=1 Ack=1 Win=32768 ns3::TcpOptionTS(20;10) ns3::TcpOptionEnd(EOL))
r 0.0264016 /NodeList/1/DeviceList/0/$ns3::PointToPointNetDevice/MacRx ns3::PppHeader (Point-to-Point Protocol: IP (0x0021)) ns3::Ipv4Header (tos 0x0 DSCP Default ECN Not-ECT ttl 64 id 2 protocol 6 offset (bytes) 0 flags [none] length: 588 10.1.1.1 > 10.1.2.2) ns3::TcpHeader (49153 > 9 [ACK] Seq=1 Ack=1 Win=32768 ns3::TcpOptionTS(20;10) ns3::TcpOptionEnd(EOL)) Payload (size=512) Payload Fragment [0:24]
+ 0.0264016 /NodeList/1/DeviceList/1/$ns3::PointToPointNetDevice/TxQueue/Enqueue ns3::PppHeader (Point-to-Point Protocol: IP (0x0021)) ns3::Ipv4Header (tos 0x0 DSCP Default ECN Not-ECT ttl 63 id 2 protocol 6 offset (bytes) 0 flags [none] length: 588 10.1.1.1 > 10.1.2.2) ns3::TcpHeader (49153 > 9 [ACK] Seq=1 Ack=1 Win=32768 ns3::TcpOptionTS(20;10) ns3::TcpOptionEnd(EOL)) Payload (size=512) Payload Fragment [0:24]
- 0.0264016 /NodeList/1/DeviceList/1/$ns3::PointToPointNetDevice/TxQueue/Dequeue ns3::PppHeader (Point-to-Point Protocol: IP (0x0021)) ns3::Ipv4Header (tos 0x0 DSCP Default ECN Not-ECT ttl 63 id 2 protocol 6 offset (bytes) 0 flags [none] length: 588 10.1.1.1 > 10.1.2.2) ns3::TcpHeader (49153 > 9 [ACK] Seq=1 Ack=1 Win=32768 ns3::TcpOptionTS(20;10) ns3::TcpOptionEnd(EOL)) Payload (size=512) Payload Fragment [0:24]
r 0.030544 /NodeList/2/DeviceList/0/$ns3::PointToPointNetDevice/MacRx ns3::PppHeader (Point-to-Point Protocol: IP (0x0021)) ns3::Ipv4Header (tos 0x0 DSCP Default ECN Not-ECT ttl 63 id 1 protocol 6 offset (bytes) 0 flags [none] length: 52 10.1.1.1 > 10.1.2.2) ns3::TcpHeader (49153 > 9 [ACK] Seq=1 Ack=1 Win=32768 ns3::TcpOptionTS(20;10) ns3::TcpOptionEnd(EOL))
r 0.0323456 /NodeList/2/DeviceList/0/$ns3::PointToPointNetDevice/MacRx ns3::PppHeader (Point-to-Point Protocol: IP (0x0021)) ns3::Ipv4Header (tos 0x0 DSCP Default ECN Not-ECT ttl 63 id 2 protocol 6 offset (bytes) 0 flags [none] length: 588 10.1.1.1 > 10.1.2.2) ns3::TcpHeader (49153 > 9 [ACK] Seq=1 Ack=1 Win=32768 ns3::TcpOptionTS(20;10) ns3::TcpOptionEnd(EOL)) Payload (size=512) Payload Fragment [0:24]
+ 0.0323456 /NodeList/2/DeviceList/0/$ns3::PointToPointNetDevice/TxQueue/Enqueue ns3::PppHeader (Point-to-Point Protocol: IP (0x0021)) ns3::Ipv4Header (tos 0x0 DSCP Default ECN Not-ECT ttl 64 id 1 protocol 6 offset (bytes) 0 flags [none] length: 52 10.1.2.2 > 10.1.1.1) ns3::TcpHeader (9 > 49153 [ACK] Seq=1 Ack=537 Win=32768 ns3::TcpOptionTS(32;20) ns3::TcpOptionEnd(EOL))
- 0.0323456 /NodeList/2/DeviceList/0/$ns3::PointToPointNetDevice/TxQueue/Dequeue ns3::PppHeader (Point-to-Point Protocol: IP (0x0021)) ns3::Ipv4Header (tos 0x0 DSCP Default ECN Not-ECT ttl 64 id 1 protocol 6 offset (bytes) 0 flags [none] length: 52 10.1.2.2 > 10.1.1.1) ns3::TcpHeader (9 > 49153 [ACK] Seq=1 Ack=537 Win=32768 ns3::TcpOptionTS(32;20) ns3::TcpOptionEnd(EOL))
r 0.037432 /NodeList/1/DeviceList/1/$ns3::PointToPointNetDevice/MacRx ns3::PppHeader (Point-to-Point Protocol: IP (0x0021)) ns3::Ipv4Header (tos 0x0 DSCP Default ECN Not-ECT ttl 64 id 1 protocol 6 offset (bytes) 0 flags [none] length: 52 10.1.2.2 > 10.1.1.1) ns3::TcpHeader (9 > 49153 [ACK] Seq=1 Ack=537 Win=32768 ns3::TcpOptionTS(32;20) ns3::TcpOptionEnd(EOL))
+ 0.037432 /NodeList/1/DeviceList/0/$ns3::PointToPointNetDevice/TxQueue/Enqueue ns3::PppHeader (Point-to-Point Protocol: IP (0x0021)) ns3::Ipv4Header (tos 0x0 DSCP Default ECN Not-ECT ttl 63 id 1 protocol 6 offset (bytes) 0 flags [none] length: 52 10.1.2.2 > 10.1.1.1) ns3::TcpHeader (9 > 49153 [ACK] Seq=1 Ack=537 Win=32768 ns3::TcpOptionTS(32;20) ns3::TcpOptionEnd(EOL))
- 0.037432 /NodeList/1/DeviceList/0/$ns3::PointToPointNetDevice/TxQueue/Dequeue ns3::PppHeader (Point-to-Point Protocol: IP (0x0021)) ns3::Ipv4Header (tos 0x0 DSCP Default ECN Not-ECT ttl 63 id 1 protocol 6 offset (bytes) 0 flags [none] length: 52 10.1.2.2 > 10.1.1.1) ns3::TcpHeader (9 > 49153 [ACK] Seq=1 Ack=537 Win=32768 ns3::TcpOptionTS(32;20) ns3::TcpOptionEnd(EOL))
r 0.0425184 /NodeList/0/DeviceList/0/$ns3::PointToPointNetDevice/MacRx ns3::PppHeader (Point-to-Point Protocol: IP (0x0021)) ns3::Ipv4Header (tos 0x0 DSCP Default ECN Not-ECT ttl 63 id 1 protocol 6 offset (bytes) 0 flags [none] length: 52 10.1.2.2 > 10.1.1.1) ns3::TcpHeader (9 > 49153 [ACK] Seq=1 Ack=537 Win=32768 ns3::TcpOptionTS(32;20) ns3::TcpOptionEnd(EOL))
+ 0.0425184 /NodeList/0/DeviceList/0/$ns3::PointToPointNetDevice/TxQueue/Enqueue ns3::PppHeader (Point-to-Point Protocol: IP (0x0021)) ns3::Ipv4Header (tos 0x0 DSCP Default ECN Not-ECT ttl 64 id 3 protocol 6 offset (bytes) 0 flags [none] length: 516 10.1.1.1 > 10.1.2.2) ns3::TcpHeader (49153 > 9 [FIN|ACK] Seq=537 Ack=1 Win=32768 ns3::TcpOptionTS(42;32) ns3::TcpOptionEnd(EOL)) Payload Fragment [24:488]
- 0.0425184 /NodeList/0/DeviceList/0/$ns3::PointToPointNetDevice/TxQueue/Dequeue ns3::PppHeader (Point-to-Point Protocol: IP (0x0021)) ns3::Ipv4Header (tos 0x0 DSCP Default ECN Not-ECT ttl 64 id 3 protocol 6 offset (bytes) 0 flags [none] length: 516 10.1.1.1 > 10.1.2.2) ns3::TcpHeader (49153 > 9 [FIN|ACK] Seq=537 Ack=1 Win=32768 ns3::TcpOptionTS(42;32) ns3::TcpOptionEnd(EOL)) Payload Fragment [24:488]
r 0.0483472 /NodeList/1/DeviceList/0/$ns3::PointToPointNetDevice/MacRx ns3::PppHeader (Point-to-Point Protocol: IP (0x0021)) ns3::Ipv4Header (tos 0x0 DSCP Default ECN Not-ECT ttl 64 id 3 protocol 6 offset (bytes) 0 flags [none] length: 516 10.1.1.1 > 10.1.2.2) ns3::TcpHeader (49153 > 9 [FIN|ACK] Seq=537 Ack=1 Win=32768 ns3::TcpOptionTS(42;32) ns3::TcpOptionEnd(EOL)) Payload Fragment [24:488]
+ 0.0483472 /NodeList/1/DeviceList/1/$ns3::PointToPointNetDevice/TxQueue/Enqueue ns3::PppHeader (Point-to-Point Protocol: IP (0x0021)) ns3::Ipv4Header (tos 0x0 DSCP Default ECN Not-ECT ttl 63 id 3 protocol 6 offset (bytes) 0 flags [none] length: 516 10.1.1.1 > 10.1.2.2) ns3::TcpHeader (49153 > 9 [FIN|ACK] Seq=537 Ack=1 Win=32768 ns3::TcpOptionTS(42;32) ns3::TcpOptionEnd(EOL)) Payload Fragment [24:488]
- 0.0483472 /NodeList/1/DeviceList/1/$ns3::PointToPointNetDevice/TxQueue/Dequeue ns3::PppHeader (Point-to-Point Protocol: IP (0x0021)) ns3::Ipv4Header (tos 0x0 DSCP Default ECN Not-ECT ttl 63 id 3 protocol 6 offset (bytes) 0 flags [none] length: 516 10.1.1.1 > 10.1.2.2) ns3::TcpHeader (49153 > 9 [FIN|ACK] Seq=537 Ack=1 Win=32768 ns3::TcpOptionTS(42;32) ns3::TcpOptionEnd(EOL)) Payload Fragment [24:488]
r 0.054176 /NodeList/2/DeviceList/0/$ns3::PointToPointNetDevice/MacRx ns3::PppHeader (Point-to-Point Protocol: IP (0x0021)) ns3::Ipv4Header (tos 0x0 DSCP Default ECN Not-ECT ttl 63 id 3 protocol 6 offset (bytes) 0 flags [none] length: 516 10.1.1.1 > 10.1.2.2) ns3::TcpHeader (49153 > 9 [FIN|ACK] Seq=537 Ack=1 Win=32768 ns3::TcpOptionTS(42;32) ns3::TcpOptionEnd(EOL)) Payload Fragment [24:488]
+ 0.054176 /NodeList/2/DeviceList/0/$ns3::PointToPointNetDevice/TxQueue/Enqueue ns3::PppHeader (Point-to-Point Protocol: IP (0x0021)) ns3::Ipv4Header (tos 0x0 DSCP Default ECN Not-ECT ttl 64 id 2 protocol 6 offset (bytes) 0 flags [none] length: 52 10.1.2.2 > 10.1.1.1) ns3::TcpHeader (9 > 49153 [ACK] Seq=1 Ack=1002 Win=32768 ns3::TcpOptionTS(54;42) ns3::TcpOptionEnd(EOL))
- 0.054176 /NodeList/2/DeviceList/0/$ns3::PointToPointNetDevice/TxQueue/Dequeue ns3::PppHeader (Point-to-Point Protocol: IP (0x0021)) ns3::Ipv4Header (tos 0x0 DSCP Default ECN Not-ECT ttl 64 id 2 protocol 6 offset (bytes) 0 flags [none] length: 52 10.1.2.2 > 10.1.1.1) ns3::TcpHeader (9 > 49153 [ACK] Seq=1 Ack=1002 Win=32768 ns3::TcpOptionTS(54;42) ns3::TcpOptionEnd(EOL))
+ 0.054176 /NodeList/2/DeviceList/0/$ns3::PointToPointNetDevice/TxQueue/Enqueue ns3::PppHeader (Point-to-Point Protocol: IP (0x0021)) ns3::Ipv4Header (tos 0x0 DSCP Default ECN Not-ECT ttl 64 id 3 protocol 6 offset (bytes) 0 flags [none] length: 52 10.1.2.2 > 10.1.1.1) ns3::TcpHeader (9 > 49153 [FIN|ACK] Seq=1 Ack=1002 Win=32768 ns3::TcpOptionTS(54;42) ns3::TcpOptionEnd(EOL))
- 0.0542624 /NodeList/2/DeviceList/0/$ns3::PointToPointNetDevice/TxQueue/Dequeue ns3::PppHeader (Point-to-Point Protocol: IP (0x0021)) ns3::Ipv4Header (tos 0x0 DSCP Default ECN Not-ECT ttl 64 id 3 protocol 6 offset (bytes) 0 flags [none] length: 52 10.1.2.2 > 10.1.1.1) ns3::TcpHeader (9 > 49153 [FIN|ACK] Seq=1 Ack=1002 Win=32768 ns3::TcpOptionTS(54;42) ns3::TcpOptionEnd(EOL))
r 0.0592624 /NodeList/1/DeviceList/1/$ns3::PointToPointNetDevice/MacRx ns3::PppHeader (Point-to-Point Protocol: IP (0x0021)) ns3::Ipv4Header (tos 0x0 DSCP Default ECN Not-ECT ttl 64 id 2 protocol 6 offset (bytes) 0 flags [none] length: 52 10.1.2.2 > 10.1.1.1) ns3::TcpHeader (9 > 49153 [ACK] Seq=1 Ack=1002 Win=32768 ns3::TcpOptionTS(54;42) ns3::TcpOptionEnd(EOL))
+ 0.0592624 /NodeList/1/DeviceList/0/$ns3::PointToPointNetDevice/TxQueue/Enqueue ns3::PppHeader (Point-to-Point Protocol: IP (0x0021)) ns3::Ipv4Header (tos 0x0 DSCP Default ECN Not-ECT ttl 63 id 2 protocol 6 offset (bytes) 0 flags [none] length: 52 10.1.2.2 > 10.1.1.1) ns3::TcpHeader (9 > 49153 [ACK] Seq=1 Ack=1002 Win=32768 ns3::TcpOptionTS(54;42) ns3::TcpOptionEnd(EOL))
- 0.0592624 /NodeList/1/DeviceList/0/$ns3::PointToPointNetDevice/TxQueue/Dequeue ns3::PppHeader (Point-to-Point Protocol: IP (0x0021)) ns3::Ipv4Header (tos 0x0 DSCP Default ECN Not-ECT ttl 63 id 2 protocol 6 offset (bytes) 0 flags [none] length: 52 10.1.2.2 > 10.1.1.1) ns3::TcpHeader (9 > 49153 [ACK] Seq=1 Ack=1002 Win=32768 ns3::TcpOptionTS(54;42) ns3::TcpOptionEnd(EOL))
r 0.0593488 /NodeList/1/DeviceList/1/$ns3::PointToPointNetDevice/MacRx ns3::PppHeader (Point-to-Point Protocol: IP (0x0021)) ns3::Ipv4Header (tos 0x0 DSCP Default ECN Not-ECT ttl 64 id 3 protocol 6 offset (bytes) 0 flags [none] length: 52 10.1.2.2 > 10.1.1.1) ns3::TcpHeader (9 > 49153 [FIN|ACK] Seq=1 Ack=1002 Win=32768 ns3::TcpOptionTS(54;42) ns3::TcpOptionEnd(EOL))
+ 0.0593488 /NodeList/1/DeviceList/0/$ns3::PointToPointNetDevice/TxQueue/Enqueue ns3::PppHeader (Point-to-Point Protocol: IP (0x0021)) ns3::Ipv4Header (tos 0x0 DSCP Default ECN Not-ECT ttl 63 id 3 protocol 6 offset (bytes) 0 flags [none] length: 52 10.1.2.2 > 10.1.1.1) ns3::TcpHeader (9 > 49153 [FIN|ACK] Seq=1 Ack=1002 Win=32768 ns3::TcpOptionTS(54;42) ns3::TcpOptionEnd(EOL))
- 0.0593488 /NodeList/1/DeviceList/0/$ns3::PointToPointNetDevice/TxQueue/Dequeue ns3::PppHeader (Point-to-Point Protocol: IP (0x0021)) ns3::Ipv4Header (tos 0x0 DSCP Default ECN Not-ECT ttl 63 id 3 protocol 6 offset (bytes) 0 flags [none] length: 52 10.1.2.2 > 10.1.1.1) ns3::TcpHeader (9 > 49153 [FIN|ACK] Seq=1 Ack=1002 Win=32768 ns3::TcpOptionTS(54;42) ns3::TcpOptionEnd(EOL))
r 0.0643488 /NodeList/0/DeviceList/0/$ns3::PointToPointNetDevice/MacRx ns3::PppHeader (Point-to-Point Protocol: IP (0x0021)) ns3::Ipv4Header (tos 0x0 DSCP Default ECN Not-ECT ttl 63 id 2 protocol 6 offset (bytes) 0 flags [none] length: 52 10.1.2.2 > 10.1.1.1) ns3::TcpHeader (9 > 49153 [ACK] Seq=1 Ack=1002 Win=32768 ns3::TcpOptionTS(54;42) ns3::TcpOptionEnd(EOL))
r 0.0644352 /NodeList/0/DeviceList/0/$ns3::PointToPointNetDevice/MacRx ns3::PppHeader (Point-to-Point Protocol: IP (0x0021)) ns3::Ipv4Header (tos 0x0 DSCP Default ECN Not-ECT ttl 63 id 3 protocol 6 offset (bytes) 0 flags [none] length: 52 10.1.2.2 > 10.1.1.1) ns3::TcpHeader (9 > 49153 [FIN|ACK] Seq=1 Ack=1002 Win=32768 ns3::TcpOptionTS(54;42) ns3::TcpOptionEnd(EOL))
+ 0.0644352 /NodeList/0/DeviceList/0/$ns3::PointToPointNetDevice/TxQueue/Enqueue ns3::PppHeader (Point-to-Point Protocol: IP (0x0021)) ns3::Ipv4Header (tos 0x0 DSCP Default ECN Not-ECT ttl 64 id 4 protocol 6 offset (bytes) 0 flags [none] length: 52 10.1.1.1 > 10.1.2.2) ns3::TcpHeader (49153 > 9 [ACK] Seq=1002 Ack=2 Win=32768 ns3::TcpOptionTS(64;54) ns3::TcpOptionEnd(EOL))
- 0.0644352 /NodeList/0/DeviceList/0/$ns3::PointToPointNetDevice/TxQueue/Dequeue ns3::PppHeader (Point-to-Point Protocol: IP (0x0021)) ns3::Ipv4Header (tos 0x0 DSCP Default ECN Not-ECT ttl 64 id 4 protocol 6 offset (bytes) 0 flags [none] length: 52 10.1.1.1 > 10.1.2.2) ns3::TcpHeader (49153 > 9 [ACK] Seq=1002 Ack=2 Win=32768 ns3::TcpOptionTS(64;54) ns3::TcpOptionEnd(EOL))
r 0.0695216 /NodeList/1/DeviceList/0/$ns3::PointToPointNetDevice/MacRx ns3::PppHeader (Point-to-Point Protocol: IP (0x0021)) ns3::Ipv4Header (tos 0x0 DSCP Default ECN Not-ECT ttl 64 id 4 protocol 6 offset (bytes) 0 flags [none] length: 52 10.1.1.1 > 10.1.2.2) ns3::TcpHeader (49153 > 9 [ACK] Seq=1002 Ack=2 Win=32768 ns3::TcpOptionTS(64;54) ns3::TcpOptionEnd(EOL))
+ 0.0695216 /NodeList/1/DeviceList/1/$ns3::PointToPointNetDevice/TxQueue/Enqueue ns3::PppHeader (Point-to-Point Protocol: IP (0x0021)) ns3::Ipv4Header (tos 0x0 DSCP Default ECN Not-ECT ttl 63 id 4 protocol 6 offset (bytes) 0 flags [none] length: 52 10.1.1.1 > 10.1.2.2) ns3::TcpHeader (49153 > 9 [ACK] Seq=1002 Ack=2 Win=32768 ns3::TcpOptionTS(64;54) ns3::TcpOptionEnd(EOL))
- 0.0695216 /NodeList/1/DeviceList/1/$ns3::PointToPointNetDevice/TxQueue/Dequeue ns3::PppHeader (Point-to-Point Protocol: IP (0x0021)) ns3::Ipv4Header (tos 0x0 DSCP Default ECN Not-ECT ttl 63 id 4 protocol 6 offset (bytes) 0 flags [none] length: 52 10.1.1.1 > 10.1.2.2) ns3::TcpHeader (49153 > 9 [ACK] Seq=1002 Ack=2 Win=32768 ns3::TcpOptionTS(64;54) ns3::TcpOptionEnd(EOL))
r 0.074608 /NodeList/2/DeviceList/0/$ns3::PointToPointNetDevice/MacRx ns3::PppHeader (Point-to-Point Protocol: IP (0x0021)) ns3::Ipv4Header (tos 0x0 DSCP Default ECN Not-ECT ttl 63 id 4 protocol 6 offset (bytes) 0 flags [none] length: 52 10.1.1.1 > 10.1.2.2) ns3::TcpHeader (49153 > 9 [ACK] Seq=1002 Ack=2 Win=32768 ns3::TcpOptionTS(64;54) ns3::TcpOptionEnd(EOL))
+ 1 /NodeList/0/DeviceList/0/$ns3::PointToPointNetDevice/TxQueue/Enqueue ns3::PppHeader (Point-to-Point Protocol: IP (0x0021)) ns3::Ipv4Header (tos 0x0 DSCP Default ECN Not-ECT ttl 64 id 1 protocol 1 offset (bytes) 0 flags [none] length: 84 10.1.1.1 > 10.1.2.2) ns3::Icmpv4Header (type=8, code=0) ns3::Icmpv4Echo (identifier=0, sequence=1, data size=56)
- 1 /NodeList/0/DeviceList/0/$ns3::PointToPointNetDevice/TxQueue/Dequeue ns3::PppHeader (Point-to-Point Protocol: IP (0x0021)) ns3::Ipv4Header (tos 0x0 DSCP Default ECN Not-ECT ttl 64 id 1 protocol 1 offset (bytes) 0 flags [none] length: 84 10.1.1.1 > 10.1.2.2) ns3::Icmpv4Header (type=8, code=0) ns3::Icmpv4Echo (identifier=0, sequence=1, data size=56)
r 1.00514 /NodeList/1/DeviceList/0/$ns3::PointToPointNetDevice/MacRx ns3::PppHeader (Point-to-Point Protocol: IP (0x0021)) ns3::Ipv4Header (tos 0x0 DSCP Default ECN Not-ECT ttl 64 id 1 protocol 1 offset (bytes) 0 flags [none] length: 84 10.1.1.1 > 10.1.2.2) ns3::Icmpv4Header (type=8, code=0) ns3::Icmpv4Echo (identifier=0, sequence=1, data size=56)
+ 1.00514 /NodeList/1/DeviceList/1/$ns3::PointToPointNetDevice/TxQueue/Enqueue ns3::PppHeader (Point-to-Point Protocol: IP (0x0021)) ns3::Ipv4Header (tos 0x0 DSCP Default ECN Not-ECT ttl 63 id 1 protocol 1 offset (bytes) 0 flags [none] length: 84 10.1.1.1 > 10.1.2.2) ns3::Icmpv4Header (type=8, code=0) ns3::Icmpv4Echo (identifier=0, sequence=1, data size=56)
- 1.00514 /NodeList/1/DeviceList/1/$ns3::PointToPointNetDevice/TxQueue/Dequeue ns3::PppHeader (Point-to-Point Protocol: IP (0x0021)) ns3::Ipv4Header (tos 0x0 DSCP Default ECN Not-ECT ttl 63 id 1 protocol 1 offset (bytes) 0 flags [none] length: 84 10.1.1.1 > 10.1.2.2) ns3::Icmpv4Header (type=8, code=0) ns3::Icmpv4Echo (identifier=0, sequence=1, data size=56)
r 1.01028 /NodeList/2/DeviceList/0/$ns3::PointToPointNetDevice/MacRx ns3::PppHeader (Point-to-Point Protocol: IP (0x0021)) ns3::Ipv4Header (tos 0x0 DSCP Default ECN Not-ECT ttl 63 id 1 protocol 1 offset (bytes) 0 flags [none] length: 84 10.1.1.1 > 10.1.2.2) ns3::Icmpv4Header (type=8, code=0) ns3::Icmpv4Echo (identifier=0, sequence=1, data size=56)
+ 1.01028 /NodeList/2/DeviceList/0/$ns3::PointToPointNetDevice/TxQueue/Enqueue ns3::PppHeader (Point-to-Point Protocol: IP (0x0021)) ns3::Ipv4Header (tos 0x0 DSCP Default ECN Not-ECT ttl 64 id 1 protocol 1 offset (bytes) 0 flags [none] length: 84 10.1.2.2 > 10.1.1.1) ns3::Icmpv4Header (type=0, code=0) ns3::Icmpv4Echo (identifier=0, sequence=1, data size=56)
- 1.01028 /NodeList/2/DeviceList/0/$ns3::PointToPointNetDevice/TxQueue/Dequeue ns3::PppHeader (Point-to-Point Protocol: IP (0x0021)) ns3::Ipv4Header (tos 0x0 DSCP Default ECN Not-ECT ttl 64 id 1 protocol 1 offset (bytes) 0 flags [none] length: 84 10.1.2.2 > 10.1.1.1) ns3::Icmpv4Header (type=0, code=0) ns3::Icmpv4Echo (identifier=0, sequence=1, data size=56)
r 1.01541 /NodeList/1/DeviceList/1/$ns3::PointToPointNetDevice/MacRx ns3::PppHeader (Point-to-Point Protocol: IP (0x0021)) ns3::Ipv4Header (tos 0x0 DSCP Default ECN Not-ECT ttl 64 id 1 protocol 1 offset (bytes) 0 flags [none] length: 84 10.1.2.2 > 10.1.1.1) ns3::Icmpv4Header (type=0, code=0) ns3::Icmpv4Echo (identifier=0, sequence=1, data size=56)
+ 1.01541 /NodeList/1/DeviceList/0/$ns3::PointToPointNetDevice/TxQueue/Enqueue ns3::PppHeader (Point-to-Point Protocol: IP (0x0021)) ns3::Ipv4Header (tos 0x0 DSCP Default ECN Not-ECT ttl 63 id 1 protocol 1 offset (bytes) 0 flags [none] length: 84 10.1.2.2 > 10.1.1.1) ns3::Icmpv4Header (type=0, code=0) ns3::Icmpv4Echo (identifier=0, sequence=1, data size=56)
- 1.01541 /NodeList/1/DeviceList/0/$ns3::PointToPointNetDevice/TxQueue/Dequeue ns3::PppHeader (Point-to-Point Protocol: IP (0x0021)) ns3::Ipv4Header (tos 0x0 DSCP Default ECN Not-ECT ttl 63 id 1 protocol 1 offset (bytes) 0 flags [none] length: 84 10.1.2.2 > 10.1.1.1) ns3::Icmpv4Header (type=0, code=0) ns3::Icmpv4Echo (identifier=0, sequence=1, data size=56)
r 1.02055 /NodeList/0/DeviceList/0/$ns3::PointToPointNetDevice/MacRx ns3::PppHeader (Point-to-Point Protocol: IP (0x0021)) ns3::Ipv4Header (tos 0x0 DSCP Default ECN Not-ECT ttl 63 id 1 protocol 1 offset (bytes) 0 flags [none] length: 84 10.1.2.2 > 10.1.1.1) ns3::Icmpv4Header (type=0, code=0) ns3::Icmpv4Echo (identifier=0, sequence=1, data size=56)